<?xml version="1.0" encoding="UTF-8"?>

<!-- generated on 2025-04-16 17:23:11 by Eclipse SUMO libsumo Version 1.21.0
This data file and the accompanying materials
are made available under the terms of the Eclipse Public License v2.0
which accompanies this distribution, and is available at
http://www.eclipse.org/legal/epl-v20.html
This file may also be made available under the following Secondary
Licenses when the conditions for such availability set forth in the Eclipse
Public License 2.0 are satisfied: GNU General Public License, version 2
or later which is available at
https://www.gnu.org/licenses/old-licenses/gpl-2.0-standalone.html
SPDX-License-Identifier: EPL-2.0 OR GPL-2.0-or-later
<libsumoConfiguration xmlns:xsi="http://www.w3.org/2001/XMLSchema-instance" xsi:noNamespaceSchemaLocation="http://sumo.dlr.de/xsd/libsumoConfiguration.xsd">

    <input>
        <net-file value="net.net.xml"/>
        <route-files value="input_routes.rou.xml"/>
        <additional-files value="test.detectors.xml"/>
    </input>

    <output>
        <write-license value="true"/>
        <tripinfo-output value="tripinfo.xml"/>
        <statistic-output value="statistics.xml"/>
    </output>

    <processing>
        <time-to-teleport value="-1"/>
        <default.speeddev value="0"/>
    </processing>

    <report>
        <verbose value="true"/>
        <duration-log.statistics value="true"/>
        <no-step-log value="true"/>
    </report>

</libsumoConfiguration>
-->

<tripinfos xmlns:xsi="http://www.w3.org/2001/XMLSchema-instance" xsi:noNamespaceSchemaLocation="http://sumo.dlr.de/xsd/tripinfo_file.xsd">
    <tripinfo id="horizontal.0" depart="0.00" departLane="2i_0" departPos="5.10" departSpeed="0.00" departDelay="0.00" arrival="358.00" arrivalLane="2i_0" arrivalPos="492.80" arrivalSpeed="8.00" duration="358.00" routeLength="2497.04" waitingTime="138.00" waitingCount="5" stopTime="0.00" timeLoss="191.07" rerouteNo="0" devices="tripinfo_horizontal.0" vType="SUMO_DEFAULT_TYPE" speedFactor="1.00" vaporized=""/>
    <tripinfo id="horizontal.1" depart="30.00" departLane="2i_0" departPos="5.10" departSpeed="0.00" departDelay="0.00" arrival="360.00" arrivalLane="2i_0" arrivalPos="492.80" arrivalSpeed="8.80" duration="330.00" routeLength="2497.04" waitingTime="119.00" waitingCount="4" stopTime="0.00" timeLoss="163.14" rerouteNo="0" devices="tripinfo_horizontal.1" vType="SUMO_DEFAULT_TYPE" speedFactor="1.00" vaporized=""/>
    <tripinfo id="horizontal.2" depart="60.00" departLane="2i_0" departPos="5.10" departSpeed="0.00" departDelay="0.00" arrival="456.00" arrivalLane="2i_0" arrivalPos="492.80" arrivalSpeed="8.00" duration="396.00" routeLength="2497.04" waitingTime="168.00" waitingCount="5" stopTime="0.00" timeLoss="229.07" rerouteNo="0" devices="tripinfo_horizontal.2" vType="SUMO_DEFAULT_TYPE" speedFactor="1.00" vaporized=""/>
    <tripinfo id="horizontal.3" depart="90.00" departLane="2i_0" departPos="5.10" departSpeed="0.00" departDelay="0.00" arrival="458.00" arrivalLane="2i_0" arrivalPos="492.80" arrivalSpeed="8.80" duration="368.00" routeLength="2497.04" waitingTime="140.00" waitingCount="5" stopTime="0.00" timeLoss="201.20" rerouteNo="0" devices="tripinfo_horizontal.3" vType="SUMO_DEFAULT_TYPE" speedFactor="1.00" vaporized=""/>
    <tripinfo id="horizontal.4" depart="120.00" departLane="2i_0" departPos="5.10" departSpeed="0.00" departDelay="0.00" arrival="460.00" arrivalLane="2i_0" arrivalPos="492.80" arrivalSpeed="9.60" duration="340.00" routeLength="2497.04" waitingTime="119.00" waitingCount="4" stopTime="0.00" timeLoss="172.71" rerouteNo="0" devices="tripinfo_horizontal.4" vType="SUMO_DEFAULT_TYPE" speedFactor="1.00" vaporized=""/>
    <tripinfo id="vertical.0" depart="4.00" departLane="3i_0" departPos="5.10" departSpeed="0.00" departDelay="4.00" arrival="499.00" arrivalLane="3i_0" arrivalPos="492.80" arrivalSpeed="5.60" duration="495.00" routeLength="2497.04" waitingTime="275.00" waitingCount="7" stopTime="0.00" timeLoss="328.29" rerouteNo="0" devices="tripinfo_vertical.0" vType="SUMO_DEFAULT_TYPE" speedFactor="1.00" vaporized=""/>
    <tripinfo id="vertical.1" depart="34.00" departLane="3i_0" departPos="5.10" departSpeed="0.00" departDelay="4.00" arrival="502.00" arrivalLane="3i_0" arrivalPos="492.80" arrivalSpeed="7.20" duration="468.00" routeLength="2497.04" waitingTime="245.00" waitingCount="7" stopTime="0.00" timeLoss="300.74" rerouteNo="0" devices="tripinfo_vertical.1" vType="SUMO_DEFAULT_TYPE" speedFactor="1.00" vaporized=""/>
    <tripinfo id="vertical.2" depart="64.00" departLane="3i_0" departPos="5.10" departSpeed="0.00" departDelay="4.00" arrival="503.00" arrivalLane="3i_0" arrivalPos="492.80" arrivalSpeed="7.20" duration="439.00" routeLength="2497.04" waitingTime="215.00" waitingCount="7" stopTime="0.00" timeLoss="272.26" rerouteNo="0" devices="tripinfo_vertical.2" vType="SUMO_DEFAULT_TYPE" speedFactor="1.00" vaporized=""/>
    <tripinfo id="vertical.3" depart="94.00" departLane="3i_0" departPos="5.10" departSpeed="0.00" departDelay="4.00" arrival="595.00" arrivalLane="3i_0" arrivalPos="492.80" arrivalSpeed="4.80" duration="501.00" routeLength="2497.04" waitingTime="268.00" waitingCount="7" stopTime="0.00" timeLoss="334.03" rerouteNo="0" devices="tripinfo_vertical.3" vType="SUMO_DEFAULT_TYPE" speedFactor="1.00" vaporized=""/>
    <tripinfo id="vertical.4" depart="124.00" departLane="3i_0" departPos="5.10" departSpeed="0.00" departDelay="4.00" arrival="597.00" arrivalLane="3i_0" arrivalPos="492.80" arrivalSpeed="5.60" duration="473.00" routeLength="2497.04" waitingTime="239.00" waitingCount="7" stopTime="0.00" timeLoss="306.45" rerouteNo="0" devices="tripinfo_vertical.4" vType="SUMO_DEFAULT_TYPE" speedFactor="1.00" vaporized=""/>
    <tripinfo id="vertical.5" depart="154.00" departLane="3i_0" departPos="5.10" departSpeed="0.00" departDelay="4.00" arrival="600.00" arrivalLane="3i_0" arrivalPos="492.80" arrivalSpeed="7.20" duration="446.00" routeLength="2497.04" waitingTime="210.00" waitingCount="7" stopTime="0.00" timeLoss="278.88" rerouteNo="0" devices="tripinfo_vertical.5" vType="SUMO_DEFAULT_TYPE" speedFactor="1.00" vaporized=""/>
    <tripinfo id="vertical.6" depart="184.00" departLane="3i_0" departPos="5.10" departSpeed="0.00" departDelay="4.00" arrival="601.00" arrivalLane="3i_0" arrivalPos="492.80" arrivalSpeed="7.20" duration="417.00" routeLength="2497.04" waitingTime="191.00" waitingCount="6" stopTime="0.00" timeLoss="250.04" rerouteNo="0" devices="tripinfo_vertical.6" vType="SUMO_DEFAULT_TYPE" speedFactor="1.00" vaporized=""/>
    <tripinfo id="vertical.7" depart="214.00" departLane="3i_0" departPos="5.10" departSpeed="0.00" departDelay="4.00" arrival="607.00" arrivalLane="3i_0" arrivalPos="492.80" arrivalSpeed="9.60" duration="393.00" routeLength="2497.04" waitingTime="162.00" waitingCount="5" stopTime="0.00" timeLoss="226.12" rerouteNo="0" devices="tripinfo_vertical.7" vType="SUMO_DEFAULT_TYPE" speedFactor="1.00" vaporized=""/>
    <tripinfo id="vertical.8" depart="244.00" departLane="3i_0" departPos="5.10" departSpeed="0.00" departDelay="4.00" arrival="609.00" arrivalLane="3i_0" arrivalPos="492.80" arrivalSpeed="10.40" duration="365.00" routeLength="2497.04" waitingTime="132.00" waitingCount="5" stopTime="0.00" timeLoss="197.77" rerouteNo="0" devices="tripinfo_vertical.8" vType="SUMO_DEFAULT_TYPE" speedFactor="1.00" vaporized=""/>
    <tripinfo id="vertical.9" depart="274.00" departLane="3i_0" departPos="5.10" departSpeed="0.00" departDelay="4.00" arrival="610.00" arrivalLane="3i_0" arrivalPos="492.80" arrivalSpeed="10.40" duration="336.00" routeLength="2497.04" waitingTime="113.00" waitingCount="4" stopTime="0.00" timeLoss="168.82" rerouteNo="0" devices="tripinfo_vertical.9" vType="SUMO_DEFAULT_TYPE" speedFactor="1.00" vaporized=""/>
    <tripinfo id="horizontal.5" depart="157.00" departLane="2i_0" departPos="5.10" departSpeed="0.00" departDelay="7.00" arrival="641.00" arrivalLane="2i_0" arrivalPos="492.80" arrivalSpeed="3.20" duration="484.00" routeLength="2497.04" waitingTime="256.00" waitingCount="7" stopTime="0.00" timeLoss="317.27" rerouteNo="0" devices="tripinfo_horizontal.5" vType="SUMO_DEFAULT_TYPE" speedFactor="1.00" vaporized=""/>
    <tripinfo id="horizontal.6" depart="182.00" departLane="2i_0" departPos="5.10" departSpeed="0.00" departDelay="2.00" arrival="662.00" arrivalLane="2i_0" arrivalPos="492.80" arrivalSpeed="8.27" duration="480.00" routeLength="2497.04" waitingTime="240.00" waitingCount="7" stopTime="0.00" timeLoss="312.83" rerouteNo="0" devices="tripinfo_horizontal.6" vType="SUMO_DEFAULT_TYPE" speedFactor="1.00" vaporized=""/>
    <tripinfo id="horizontal.7" depart="210.00" departLane="2i_0" departPos="5.10" departSpeed="0.00" departDelay="0.00" arrival="664.00" arrivalLane="2i_0" arrivalPos="492.80" arrivalSpeed="9.07" duration="454.00" routeLength="2497.04" waitingTime="213.00" waitingCount="7" stopTime="0.00" timeLoss="286.86" rerouteNo="0" devices="tripinfo_horizontal.7" vType="SUMO_DEFAULT_TYPE" speedFactor="1.00" vaporized=""/>
    <tripinfo id="vertical.10" depart="307.00" departLane="3i_0" departPos="5.10" departSpeed="0.00" departDelay="7.00" arrival="791.00" arrivalLane="3i_0" arrivalPos="492.80" arrivalSpeed="4.80" duration="484.00" routeLength="2497.04" waitingTime="253.00" waitingCount="7" stopTime="0.00" timeLoss="317.00" rerouteNo="0" devices="tripinfo_vertical.10" vType="SUMO_DEFAULT_TYPE" speedFactor="1.00" vaporized=""/>
    <tripinfo id="vertical.11" depart="334.00" departLane="3i_0" departPos="5.10" departSpeed="0.00" departDelay="4.00" arrival="793.00" arrivalLane="3i_0" arrivalPos="492.80" arrivalSpeed="5.60" duration="459.00" routeLength="2497.04" waitingTime="227.00" waitingCount="7" stopTime="0.00" timeLoss="292.24" rerouteNo="0" devices="tripinfo_vertical.11" vType="SUMO_DEFAULT_TYPE" speedFactor="1.00" vaporized=""/>
    <tripinfo id="vertical.12" depart="364.00" departLane="3i_0" departPos="5.10" departSpeed="0.00" departDelay="4.00" arrival="796.00" arrivalLane="3i_0" arrivalPos="492.80" arrivalSpeed="7.20" duration="432.00" routeLength="2497.04" waitingTime="197.00" waitingCount="6" stopTime="0.00" timeLoss="264.79" rerouteNo="0" devices="tripinfo_vertical.12" vType="SUMO_DEFAULT_TYPE" speedFactor="1.00" vaporized=""/>
    <tripinfo id="vertical.13" depart="394.00" departLane="3i_0" departPos="5.10" departSpeed="0.00" departDelay="4.00" arrival="797.00" arrivalLane="3i_0" arrivalPos="492.80" arrivalSpeed="7.20" duration="403.00" routeLength="2497.04" waitingTime="171.00" waitingCount="6" stopTime="0.00" timeLoss="236.16" rerouteNo="0" devices="tripinfo_vertical.13" vType="SUMO_DEFAULT_TYPE" speedFactor="1.00" vaporized=""/>
    <tripinfo id="always_left.0" depart="0.00" departLane="3i_0" departPos="5.10" departSpeed="0.00" departDelay="0.00" arrival="803.00" arrivalLane="3i_0" arrivalPos="492.80" arrivalSpeed="9.60" duration="803.00" routeLength="4484.90" waitingTime="409.00" waitingCount="10" stopTime="0.00" timeLoss="495.87" rerouteNo="0" devices="tripinfo_always_left.0" vType="SUMO_DEFAULT_TYPE" speedFactor="1.00" vaporized=""/>
    <tripinfo id="horizontal.8" depart="240.00" departLane="2i_0" departPos="5.10" departSpeed="0.00" departDelay="0.00" arrival="850.00" arrivalLane="2i_0" arrivalPos="492.80" arrivalSpeed="8.80" duration="610.00" routeLength="2497.04" waitingTime="365.00" waitingCount="9" stopTime="0.00" timeLoss="442.98" rerouteNo="0" devices="tripinfo_horizontal.8" vType="SUMO_DEFAULT_TYPE" speedFactor="1.00" vaporized=""/>
    <tripinfo id="horizontal.9" depart="270.00" departLane="2i_0" departPos="5.10" departSpeed="0.00" departDelay="0.00" arrival="852.00" arrivalLane="2i_0" arrivalPos="492.80" arrivalSpeed="9.60" duration="582.00" routeLength="2497.04" waitingTime="341.00" waitingCount="9" stopTime="0.00" timeLoss="415.02" rerouteNo="0" devices="tripinfo_horizontal.9" vType="SUMO_DEFAULT_TYPE" speedFactor="1.00" vaporized=""/>
    <tripinfo id="horizontal.10" depart="300.00" departLane="2i_0" departPos="5.10" departSpeed="0.00" departDelay="0.00" arrival="854.00" arrivalLane="2i_0" arrivalPos="492.80" arrivalSpeed="10.40" duration="554.00" routeLength="2497.04" waitingTime="311.00" waitingCount="9" stopTime="0.00" timeLoss="386.64" rerouteNo="0" devices="tripinfo_horizontal.10" vType="SUMO_DEFAULT_TYPE" speedFactor="1.00" vaporized=""/>
    <tripinfo id="horizontal.11" depart="330.00" departLane="2i_0" departPos="5.10" departSpeed="0.00" departDelay="0.00" arrival="855.00" arrivalLane="2i_0" arrivalPos="492.80" arrivalSpeed="10.40" duration="525.00" routeLength="2497.04" waitingTime="294.00" waitingCount="8" stopTime="0.00" timeLoss="357.98" rerouteNo="0" devices="tripinfo_horizontal.11" vType="SUMO_DEFAULT_TYPE" speedFactor="1.00" vaporized=""/>
    <tripinfo id="vertical.14" depart="424.00" departLane="3i_0" departPos="5.10" departSpeed="0.00" departDelay="4.00" arrival="894.00" arrivalLane="3i_0" arrivalPos="492.80" arrivalSpeed="7.20" duration="470.00" routeLength="2497.04" waitingTime="225.00" waitingCount="8" stopTime="0.00" timeLoss="303.11" rerouteNo="0" devices="tripinfo_vertical.14" vType="SUMO_DEFAULT_TYPE" speedFactor="1.00" vaporized=""/>
    <tripinfo id="vertical.15" depart="454.00" departLane="3i_0" departPos="5.10" departSpeed="0.00" departDelay="4.00" arrival="895.00" arrivalLane="3i_0" arrivalPos="492.80" arrivalSpeed="7.20" duration="441.00" routeLength="2497.04" waitingTime="195.00" waitingCount="8" stopTime="0.00" timeLoss="274.03" rerouteNo="0" devices="tripinfo_vertical.15" vType="SUMO_DEFAULT_TYPE" speedFactor="1.00" vaporized=""/>
    <tripinfo id="always_right.0" depart="0.00" departLane="1i_0" departPos="5.10" departSpeed="0.00" departDelay="0.00" arrival="935.00" arrivalLane="1i_0" arrivalPos="492.80" arrivalSpeed="3.20" duration="935.00" routeLength="4505.58" waitingTime="521.00" waitingCount="14" stopTime="0.00" timeLoss="626.64" rerouteNo="0" devices="tripinfo_always_right.0" vType="SUMO_DEFAULT_TYPE" speedFactor="1.00" vaporized=""/>
    <tripinfo id="vertical.16" depart="484.00" departLane="3i_0" departPos="5.10" departSpeed="0.00" departDelay="4.00" arrival="987.00" arrivalLane="3i_0" arrivalPos="492.80" arrivalSpeed="4.80" duration="503.00" routeLength="2497.04" waitingTime="262.00" waitingCount="8" stopTime="0.00" timeLoss="336.07" rerouteNo="0" devices="tripinfo_vertical.16" vType="SUMO_DEFAULT_TYPE" speedFactor="1.00" vaporized=""/>
    <tripinfo id="always_left.1" depart="30.00" departLane="3i_0" departPos="5.10" departSpeed="0.00" departDelay="0.00" arrival="997.00" arrivalLane="3i_0" arrivalPos="492.80" arrivalSpeed="8.80" duration="967.00" routeLength="4484.90" waitingTime="556.00" waitingCount="14" stopTime="0.00" timeLoss="660.03" rerouteNo="0" devices="tripinfo_always_left.1" vType="SUMO_DEFAULT_TYPE" speedFactor="1.00" vaporized=""/>
    <tripinfo id="always_left.2" depart="60.00" departLane="3i_0" departPos="5.10" departSpeed="0.00" departDelay="0.00" arrival="999.00" arrivalLane="3i_0" arrivalPos="492.80" arrivalSpeed="9.60" duration="939.00" routeLength="4484.90" waitingTime="527.00" waitingCount="14" stopTime="0.00" timeLoss="631.99" rerouteNo="0" devices="tripinfo_always_left.2" vType="SUMO_DEFAULT_TYPE" speedFactor="1.00" vaporized=""/>
    <tripinfo id="always_left.3" depart="90.00" departLane="3i_0" departPos="5.10" departSpeed="0.00" departDelay="0.00" arrival="1001.00" arrivalLane="3i_0" arrivalPos="492.80" arrivalSpeed="10.40" duration="911.00" routeLength="4484.90" waitingTime="506.00" waitingCount="13" stopTime="0.00" timeLoss="603.01" rerouteNo="0" devices="tripinfo_always_left.3" vType="SUMO_DEFAULT_TYPE" speedFactor="1.00" vaporized=""/>
    <tripinfo id="vertical.17" depart="514.00" departLane="3i_0" departPos="5.10" departSpeed="0.00" departDelay="4.00" arrival="1014.00" arrivalLane="3i_0" arrivalPos="492.80" arrivalSpeed="2.40" duration="500.00" routeLength="2497.04" waitingTime="262.00" waitingCount="7" stopTime="0.00" timeLoss="333.24" rerouteNo="0" devices="tripinfo_vertical.17" vType="SUMO_DEFAULT_TYPE" speedFactor="1.00" vaporized=""/>
    <tripinfo id="vertical.18" depart="544.00" departLane="3i_0" departPos="5.10" departSpeed="0.00" departDelay="4.00" arrival="1017.00" arrivalLane="3i_0" arrivalPos="492.80" arrivalSpeed="4.00" duration="473.00" routeLength="2497.04" waitingTime="232.00" waitingCount="7" stopTime="0.00" timeLoss="306.18" rerouteNo="0" devices="tripinfo_vertical.18" vType="SUMO_DEFAULT_TYPE" speedFactor="1.00" vaporized=""/>
    <tripinfo id="vertical.19" depart="574.00" departLane="3i_0" departPos="5.10" departSpeed="0.00" departDelay="4.00" arrival="1020.00" arrivalLane="3i_0" arrivalPos="492.80" arrivalSpeed="5.60" duration="446.00" routeLength="2497.04" waitingTime="202.00" waitingCount="7" stopTime="0.00" timeLoss="278.98" rerouteNo="0" devices="tripinfo_vertical.19" vType="SUMO_DEFAULT_TYPE" speedFactor="1.00" vaporized=""/>
    <tripinfo id="vertical.20" depart="604.00" departLane="3i_0" departPos="5.10" departSpeed="0.00" departDelay="4.00" arrival="1022.00" arrivalLane="3i_0" arrivalPos="492.80" arrivalSpeed="6.40" duration="418.00" routeLength="2497.04" waitingTime="186.00" waitingCount="6" stopTime="0.00" timeLoss="250.81" rerouteNo="0" devices="tripinfo_vertical.20" vType="SUMO_DEFAULT_TYPE" speedFactor="1.00" vaporized=""/>
    <tripinfo id="always_left.4" depart="120.00" departLane="3i_0" departPos="5.10" departSpeed="0.00" departDelay="0.00" arrival="1024.00" arrivalLane="3i_0" arrivalPos="492.80" arrivalSpeed="7.20" duration="904.00" routeLength="4484.90" waitingTime="503.00" waitingCount="12" stopTime="0.00" timeLoss="596.96" rerouteNo="0" devices="tripinfo_always_left.4" vType="SUMO_DEFAULT_TYPE" speedFactor="1.00" vaporized=""/>
    <tripinfo id="vertical.21" depart="634.00" departLane="3i_0" departPos="5.10" departSpeed="0.00" departDelay="4.00" arrival="1117.00" arrivalLane="3i_0" arrivalPos="492.80" arrivalSpeed="4.00" duration="483.00" routeLength="2497.04" waitingTime="244.00" waitingCount="8" stopTime="0.00" timeLoss="316.21" rerouteNo="0" devices="tripinfo_vertical.21" vType="SUMO_DEFAULT_TYPE" speedFactor="1.00" vaporized=""/>
    <tripinfo id="vertical.22" depart="664.00" departLane="3i_0" departPos="5.10" departSpeed="0.00" departDelay="4.00" arrival="1120.00" arrivalLane="3i_0" arrivalPos="492.80" arrivalSpeed="5.60" duration="456.00" routeLength="2497.04" waitingTime="215.00" waitingCount="8" stopTime="0.00" timeLoss="288.84" rerouteNo="0" devices="tripinfo_vertical.22" vType="SUMO_DEFAULT_TYPE" speedFactor="1.00" vaporized=""/>
    <tripinfo id="vertical.23" depart="694.00" departLane="3i_0" departPos="5.10" departSpeed="0.00" departDelay="4.00" arrival="1122.00" arrivalLane="3i_0" arrivalPos="492.80" arrivalSpeed="6.40" duration="428.00" routeLength="2497.04" waitingTime="195.00" waitingCount="7" stopTime="0.00" timeLoss="261.08" rerouteNo="0" devices="tripinfo_vertical.23" vType="SUMO_DEFAULT_TYPE" speedFactor="1.00" vaporized=""/>
    <tripinfo id="vertical.24" depart="724.00" departLane="3i_0" departPos="5.10" departSpeed="0.00" departDelay="4.00" arrival="1124.00" arrivalLane="3i_0" arrivalPos="492.80" arrivalSpeed="7.20" duration="400.00" routeLength="2497.04" waitingTime="167.00" waitingCount="6" stopTime="0.00" timeLoss="233.00" rerouteNo="0" devices="tripinfo_vertical.24" vType="SUMO_DEFAULT_TYPE" speedFactor="1.00" vaporized=""/>
    <tripinfo id="vertical.25" depart="754.00" departLane="3i_0" departPos="5.10" departSpeed="0.00" departDelay="4.00" arrival="1126.00" arrivalLane="3i_0" arrivalPos="492.80" arrivalSpeed="8.00" duration="372.00" routeLength="2497.04" waitingTime="136.00" waitingCount="6" stopTime="0.00" timeLoss="204.86" rerouteNo="0" devices="tripinfo_vertical.25" vType="SUMO_DEFAULT_TYPE" speedFactor="1.00" vaporized=""/>
    <tripinfo id="vertical.26" depart="784.00" departLane="3i_0" departPos="5.10" departSpeed="0.00" departDelay="4.00" arrival="1128.00" arrivalLane="3i_0" arrivalPos="492.80" arrivalSpeed="8.80" duration="344.00" routeLength="2497.04" waitingTime="116.00" waitingCount="5" stopTime="0.00" timeLoss="176.85" rerouteNo="0" devices="tripinfo_vertical.26" vType="SUMO_DEFAULT_TYPE" speedFactor="1.00" vaporized=""/>
    <tripinfo id="horizontal.12" depart="360.00" departLane="2i_0" departPos="5.10" departSpeed="0.00" departDelay="0.00" arrival="1137.00" arrivalLane="2i_0" arrivalPos="492.80" arrivalSpeed="2.97" duration="777.00" routeLength="2497.04" waitingTime="524.00" waitingCount="13" stopTime="0.00" timeLoss="610.27" rerouteNo="0" devices="tripinfo_horizontal.12" vType="SUMO_DEFAULT_TYPE" speedFactor="1.00" vaporized=""/>
    <tripinfo id="always_right.1" depart="30.00" departLane="1i_0" departPos="5.10" departSpeed="0.00" departDelay="0.00" arrival="1140.00" arrivalLane="1i_0" arrivalPos="492.80" arrivalSpeed="7.20" duration="1110.00" routeLength="4505.58" waitingTime="670.00" waitingCount="17" stopTime="0.00" timeLoss="801.48" rerouteNo="0" devices="tripinfo_always_right.1" vType="SUMO_DEFAULT_TYPE" speedFactor="1.00" vaporized=""/>
    <tripinfo id="horizontal.13" depart="390.00" departLane="2i_0" departPos="5.10" departSpeed="0.00" departDelay="0.00" arrival="1140.00" arrivalLane="2i_0" arrivalPos="492.80" arrivalSpeed="4.57" duration="750.00" routeLength="2497.04" waitingTime="494.00" waitingCount="13" stopTime="0.00" timeLoss="583.25" rerouteNo="0" devices="tripinfo_horizontal.13" vType="SUMO_DEFAULT_TYPE" speedFactor="1.00" vaporized=""/>
    <tripinfo id="horizontal.14" depart="420.00" departLane="2i_0" departPos="5.10" departSpeed="0.00" departDelay="0.00" arrival="1143.00" arrivalLane="2i_0" arrivalPos="492.80" arrivalSpeed="6.17" duration="723.00" routeLength="2497.04" waitingTime="471.00" waitingCount="12" stopTime="0.00" timeLoss="556.02" rerouteNo="0" devices="tripinfo_horizontal.14" vType="SUMO_DEFAULT_TYPE" speedFactor="1.00" vaporized=""/>
    <tripinfo id="always_right.2" depart="60.00" departLane="1i_0" departPos="5.10" departSpeed="0.00" departDelay="0.00" arrival="1154.00" arrivalLane="1i_0" arrivalPos="492.80" arrivalSpeed="10.32" duration="1094.00" routeLength="4505.58" waitingTime="655.00" waitingCount="17" stopTime="0.00" timeLoss="784.98" rerouteNo="0" devices="tripinfo_always_right.2" vType="SUMO_DEFAULT_TYPE" speedFactor="1.00" vaporized=""/>
    <tripinfo id="always_right.3" depart="90.00" departLane="1i_0" departPos="5.10" departSpeed="0.00" departDelay="0.00" arrival="1155.00" arrivalLane="1i_0" arrivalPos="492.80" arrivalSpeed="10.32" duration="1065.00" routeLength="4505.58" waitingTime="624.00" waitingCount="17" stopTime="0.00" timeLoss="756.32" rerouteNo="0" devices="tripinfo_always_right.3" vType="SUMO_DEFAULT_TYPE" speedFactor="1.00" vaporized=""/>
    <tripinfo id="horizontal.15" depart="450.00" departLane="2i_0" departPos="5.10" departSpeed="0.00" departDelay="0.00" arrival="1216.00" arrivalLane="2i_0" arrivalPos="492.80" arrivalSpeed="19.44" duration="766.00" routeLength="2497.04" waitingTime="520.00" waitingCount="12" stopTime="0.00" timeLoss="598.77" rerouteNo="0" devices="tripinfo_horizontal.15" vType="SUMO_DEFAULT_TYPE" speedFactor="1.00" vaporized=""/>
    <tripinfo id="vertical.27" depart="814.00" departLane="3i_0" departPos="5.10" departSpeed="0.00" departDelay="4.00" arrival="1216.00" arrivalLane="3i_0" arrivalPos="492.80" arrivalSpeed="2.40" duration="402.00" routeLength="2497.04" waitingTime="180.00" waitingCount="6" stopTime="0.00" timeLoss="235.20" rerouteNo="0" devices="tripinfo_vertical.27" vType="SUMO_DEFAULT_TYPE" speedFactor="1.00" vaporized=""/>
    <tripinfo id="vertical.28" depart="844.00" departLane="3i_0" departPos="5.10" departSpeed="0.00" departDelay="4.00" arrival="1219.00" arrivalLane="3i_0" arrivalPos="492.80" arrivalSpeed="4.00" duration="375.00" routeLength="2497.04" waitingTime="149.00" waitingCount="6" stopTime="0.00" timeLoss="207.99" rerouteNo="0" devices="tripinfo_vertical.28" vType="SUMO_DEFAULT_TYPE" speedFactor="1.00" vaporized=""/>
    <tripinfo id="vertical.29" depart="874.00" departLane="3i_0" departPos="5.10" departSpeed="0.00" departDelay="4.00" arrival="1222.00" arrivalLane="3i_0" arrivalPos="492.80" arrivalSpeed="5.60" duration="348.00" routeLength="2497.04" waitingTime="129.00" waitingCount="5" stopTime="0.00" timeLoss="180.96" rerouteNo="0" devices="tripinfo_vertical.29" vType="SUMO_DEFAULT_TYPE" speedFactor="1.00" vaporized=""/>
    <tripinfo id="always_left.5" depart="150.00" departLane="3i_0" departPos="5.10" departSpeed="0.00" departDelay="0.00" arrival="1224.00" arrivalLane="3i_0" arrivalPos="492.80" arrivalSpeed="6.40" duration="1074.00" routeLength="4484.90" waitingTime="652.00" waitingCount="16" stopTime="0.00" timeLoss="766.86" rerouteNo="0" devices="tripinfo_always_left.5" vType="SUMO_DEFAULT_TYPE" speedFactor="1.00" vaporized=""/>
    <tripinfo id="always_left.6" depart="180.00" departLane="3i_0" departPos="5.10" departSpeed="0.00" departDelay="0.00" arrival="1226.00" arrivalLane="3i_0" arrivalPos="492.80" arrivalSpeed="7.20" duration="1046.00" routeLength="4484.90" waitingTime="632.00" waitingCount="15" stopTime="0.00" timeLoss="738.39" rerouteNo="0" devices="tripinfo_always_left.6" vType="SUMO_DEFAULT_TYPE" speedFactor="1.00" vaporized=""/>
    <tripinfo id="always_left.7" depart="210.00" departLane="3i_0" departPos="5.10" departSpeed="0.00" departDelay="0.00" arrival="1228.00" arrivalLane="3i_0" arrivalPos="492.80" arrivalSpeed="8.00" duration="1018.00" routeLength="4484.90" waitingTime="604.00" waitingCount="15" stopTime="0.00" timeLoss="710.97" rerouteNo="0" devices="tripinfo_always_left.7" vType="SUMO_DEFAULT_TYPE" speedFactor="1.00" vaporized=""/>
    <tripinfo id="always_right.4" depart="120.00" departLane="1i_0" departPos="5.10" departSpeed="0.00" departDelay="0.00" arrival="1246.00" arrivalLane="1i_0" arrivalPos="492.80" arrivalSpeed="7.92" duration="1126.00" routeLength="4505.58" waitingTime="677.00" waitingCount="17" stopTime="0.00" timeLoss="817.37" rerouteNo="0" devices="tripinfo_always_right.4" vType="SUMO_DEFAULT_TYPE" speedFactor="1.00" vaporized=""/>
    <tripinfo id="always_right.5" depart="150.00" departLane="1i_0" departPos="5.10" departSpeed="0.00" departDelay="0.00" arrival="1248.00" arrivalLane="1i_0" arrivalPos="492.80" arrivalSpeed="8.72" duration="1098.00" routeLength="4505.58" waitingTime="653.00" waitingCount="16" stopTime="0.00" timeLoss="789.50" rerouteNo="0" devices="tripinfo_always_right.5" vType="SUMO_DEFAULT_TYPE" speedFactor="1.00" vaporized=""/>
    <tripinfo id="always_right.6" depart="180.00" departLane="1i_0" departPos="5.10" departSpeed="0.00" departDelay="0.00" arrival="1250.00" arrivalLane="1i_0" arrivalPos="492.80" arrivalSpeed="9.52" duration="1070.00" routeLength="4505.58" waitingTime="625.00" waitingCount="16" stopTime="0.00" timeLoss="761.56" rerouteNo="0" devices="tripinfo_always_right.6" vType="SUMO_DEFAULT_TYPE" speedFactor="1.00" vaporized=""/>
    <tripinfo id="always_left.8" depart="240.00" departLane="3i_0" departPos="5.10" departSpeed="0.00" departDelay="0.00" arrival="1284.00" arrivalLane="3i_0" arrivalPos="492.80" arrivalSpeed="2.40" duration="1044.00" routeLength="4484.90" waitingTime="611.00" waitingCount="16" stopTime="0.00" timeLoss="736.96" rerouteNo="0" devices="tripinfo_always_left.8" vType="SUMO_DEFAULT_TYPE" speedFactor="1.00" vaporized=""/>
    <tripinfo id="always_left.9" depart="270.00" departLane="3i_0" departPos="5.10" departSpeed="0.00" departDelay="0.00" arrival="1287.00" arrivalLane="3i_0" arrivalPos="492.80" arrivalSpeed="4.00" duration="1017.00" routeLength="4484.90" waitingTime="591.00" waitingCount="15" stopTime="0.00" timeLoss="709.40" rerouteNo="0" devices="tripinfo_always_left.9" vType="SUMO_DEFAULT_TYPE" speedFactor="1.00" vaporized=""/>
    <tripinfo id="always_left.10" depart="300.00" departLane="3i_0" departPos="5.10" departSpeed="0.00" departDelay="0.00" arrival="1290.00" arrivalLane="3i_0" arrivalPos="492.80" arrivalSpeed="5.60" duration="990.00" routeLength="4484.90" waitingTime="567.00" waitingCount="15" stopTime="0.00" timeLoss="682.84" rerouteNo="0" devices="tripinfo_always_left.10" vType="SUMO_DEFAULT_TYPE" speedFactor="1.00" vaporized=""/>
    <tripinfo id="horizontal.16" depart="480.00" departLane="2i_0" departPos="5.10" departSpeed="0.00" departDelay="0.00" arrival="1343.00" arrivalLane="2i_0" arrivalPos="492.80" arrivalSpeed="5.60" duration="863.00" routeLength="2497.04" waitingTime="590.00" waitingCount="15" stopTime="0.00" timeLoss="695.85" rerouteNo="0" devices="tripinfo_horizontal.16" vType="SUMO_DEFAULT_TYPE" speedFactor="1.00" vaporized=""/>
    <tripinfo id="horizontal.17" depart="510.00" departLane="2i_0" departPos="5.10" departSpeed="0.00" departDelay="0.00" arrival="1345.00" arrivalLane="2i_0" arrivalPos="492.80" arrivalSpeed="6.40" duration="835.00" routeLength="2497.04" waitingTime="565.00" waitingCount="14" stopTime="0.00" timeLoss="668.22" rerouteNo="0" devices="tripinfo_horizontal.17" vType="SUMO_DEFAULT_TYPE" speedFactor="1.00" vaporized=""/>
    <tripinfo id="horizontal.18" depart="540.00" departLane="2i_0" departPos="5.10" departSpeed="0.00" departDelay="0.00" arrival="1347.00" arrivalLane="2i_0" arrivalPos="492.80" arrivalSpeed="7.20" duration="807.00" routeLength="2497.04" waitingTime="542.00" waitingCount="13" stopTime="0.00" timeLoss="639.97" rerouteNo="0" devices="tripinfo_horizontal.18" vType="SUMO_DEFAULT_TYPE" speedFactor="1.00" vaporized=""/>
    <tripinfo id="horizontal.19" depart="574.00" departLane="2i_0" departPos="5.10" departSpeed="0.00" departDelay="4.00" arrival="1349.00" arrivalLane="2i_0" arrivalPos="492.80" arrivalSpeed="8.00" duration="775.00" routeLength="2497.04" waitingTime="508.00" waitingCount="13" stopTime="0.00" timeLoss="607.64" rerouteNo="0" devices="tripinfo_horizontal.19" vType="SUMO_DEFAULT_TYPE" speedFactor="1.00" vaporized=""/>